t 0.067125 /NodeList/0/DeviceList/1/$ns3::WifiNetDevice/Phy/State/Tx OfdmRate6Mbps ns3::WifiMacHeader (MGT_BEACON ToDS=0, FromDS=0, MoreFrag=0, Retry=0, PowerManagement=0, MoreData=0 Duration/ID=0us, DA=ff:ff:ff:ff:ff:ff, SA=00:00:00:00:00:0a, BSSID=00:00:00:00:00:0a, FragNumber=0, SeqNumber=0) ns3::MgtProbeResponseHeader (ssid=ns-3-ssid , rates=[*6mbs 9mbs *12mbs 18mbs *24mbs 36mbs 48mbs 54mbs] , rates=[0mbs] ,  , HT Capabilities=0|1|0|1 1 1 1 1 1 1 1 0 0 0 0 0 0 0 0 0 0 0 0 0 0 0 0 0 0 0 0 0 0 0 0 0 0 0 0 0 0 0 0 0 0 0 0 0 0 0 0 0 0 0 0 0 0 0 0 0 0 0 0 0 0 0 0 0 0 0 0 0 0 0 0 0 0 0 0 0  , HT Operation=1|1|1|0|0|1|0|0|0|0|0|0|0|65|1|0|0|0|1 0 0 0 0 0 0 0 0 0 0 0 0 0 0 0 0 0 0 0 0 0 0 0 0 0 0 0 0 0 0 0 0 0 0 0 0 0 0 0 0 0 0 0 0 0 0 0 0 0 0 0 0 0 0 0 0 0 0 0 0 0 0 0 0 0 0 0 0 0 0 0 0 0 0 0 0  , Extended Capabilities=0 , VHT Capabilities=25165828|110056707329556478 , VHT Operation=1|42|0|2 , HE Capabilities=0|0|4|0|0|32 , HE Operation=0|65534 , ) 
r 0.067417 OfdmRate6Mbps /NodeList/5/DeviceList/0/$ns3::WifiNetDevice/Phy/State/RxOk ns3::WifiMacHeader (MGT_BEACON ToDS=0, FromDS=0, MoreFrag=0, Retry=0, PowerManagement=0, MoreData=0 Duration/ID=0us, DA=ff:ff:ff:ff:ff:ff, SA=00:00:00:00:00:0a, BSSID=00:00:00:00:00:0a, FragNumber=0, SeqNumber=0) ns3::MgtProbeResponseHeader (ssid=ns-3-ssid , rates=[*6mbs 9mbs *12mbs 18mbs *24mbs 36mbs 48mbs 54mbs] , rates=[0mbs] ,  , HT Capabilities=0|1|0|1 1 1 1 1 1 1 1 0 0 0 0 0 0 0 0 0 0 0 0 0 0 0 0 0 0 0 0 0 0 0 0 0 0 0 0 0 0 0 0 0 0 0 0 0 0 0 0 0 0 0 0 0 0 0 0 0 0 0 0 0 0 0 0 0 0 0 0 0 0 0 0 0 0 0 0 0  , HT Operation=1|1|1|0|0|1|0|0|0|0|0|0|0|65|1|0|0|0|1 0 0 0 0 0 0 0 0 0 0 0 0 0 0 0 0 0 0 0 0 0 0 0 0 0 0 0 0 0 0 0 0 0 0 0 0 0 0 0 0 0 0 0 0 0 0 0 0 0 0 0 0 0 0 0 0 0 0 0 0 0 0 0 0 0 0 0 0 0 0 0 0 0 0 0 0  , Extended Capabilities=0 , VHT Capabilities=25165828|110056707329556478 , VHT Operation=1|42|0|2 , HE Capabilities=0|0|4|0|0|32 , HE Operation=0|65534 , ) 
r 0.067417 OfdmRate6Mbps /NodeList/6/DeviceList/0/$ns3::WifiNetDevice/Phy/State/RxOk ns3::WifiMacHeader (MGT_BEACON ToDS=0, FromDS=0, MoreFrag=0, Retry=0, PowerManagement=0, MoreData=0 Duration/ID=0us, DA=ff:ff:ff:ff:ff:ff, SA=00:00:00:00:00:0a, BSSID=00:00:00:00:00:0a, FragNumber=0, SeqNumber=0) ns3::MgtProbeResponseHeader (ssid=ns-3-ssid , rates=[*6mbs 9mbs *12mbs 18mbs *24mbs 36mbs 48mbs 54mbs] , rates=[0mbs] ,  , HT Capabilities=0|1|0|1 1 1 1 1 1 1 1 0 0 0 0 0 0 0 0 0 0 0 0 0 0 0 0 0 0 0 0 0 0 0 0 0 0 0 0 0 0 0 0 0 0 0 0 0 0 0 0 0 0 0 0 0 0 0 0 0 0 0 0 0 0 0 0 0 0 0 0 0 0 0 0 0 0 0 0 0  , HT Operation=1|1|1|0|0|1|0|0|0|0|0|0|0|65|1|0|0|0|1 0 0 0 0 0 0 0 0 0 0 0 0 0 0 0 0 0 0 0 0 0 0 0 0 0 0 0 0 0 0 0 0 0 0 0 0 0 0 0 0 0 0 0 0 0 0 0 0 0 0 0 0 0 0 0 0 0 0 0 0 0 0 0 0 0 0 0 0 0 0 0 0 0 0 0 0  , Extended Capabilities=0 , VHT Capabilities=25165828|110056707329556478 , VHT Operation=1|42|0|2 , HE Capabilities=0|0|4|0|0|32 , HE Operation=0|65534 , ) 
r 0.067417 OfdmRate6Mbps /NodeList/7/DeviceList/0/$ns3::WifiNetDevice/Phy/State/RxOk ns3::WifiMacHeader (MGT_BEACON ToDS=0, FromDS=0, MoreFrag=0, Retry=0, PowerManagement=0, MoreData=0 Duration/ID=0us, DA=ff:ff:ff:ff:ff:ff, SA=00:00:00:00:00:0a, BSSID=00:00:00:00:00:0a, FragNumber=0, SeqNumber=0) ns3::MgtProbeResponseHeader (ssid=ns-3-ssid , rates=[*6mbs 9mbs *12mbs 18mbs *24mbs 36mbs 48mbs 54mbs] , rates=[0mbs] ,  , HT Capabilities=0|1|0|1 1 1 1 1 1 1 1 0 0 0 0 0 0 0 0 0 0 0 0 0 0 0 0 0 0 0 0 0 0 0 0 0 0 0 0 0 0 0 0 0 0 0 0 0 0 0 0 0 0 0 0 0 0 0 0 0 0 0 0 0 0 0 0 0 0 0 0 0 0 0 0 0 0 0 0 0  , HT Operation=1|1|1|0|0|1|0|0|0|0|0|0|0|65|1|0|0|0|1 0 0 0 0 0 0 0 0 0 0 0 0 0 0 0 0 0 0 0 0 0 0 0 0 0 0 0 0 0 0 0 0 0 0 0 0 0 0 0 0 0 0 0 0 0 0 0 0 0 0 0 0 0 0 0 0 0 0 0 0 0 0 0 0 0 0 0 0 0 0 0 0 0 0 0 0  , Extended Capabilities=0 , VHT Capabilities=25165828|110056707329556478 , VHT Operation=1|42|0|2 , HE Capabilities=0|0|4|0|0|32 , HE Operation=0|65534 , ) 
t 0.120002 /NodeList/5/DeviceList/0/$ns3::WifiNetDevice/Phy/State/Tx OfdmRate6Mbps ns3::WifiMacHeader (MGT_ASSOCIATION_REQUEST ToDS=0, FromDS=0, MoreFrag=0, Retry=0, PowerManagement=0, MoreData=0 Duration/ID=1880us, DA=00:00:00:00:00:0a, SA=00:00:00:00:00:07, BSSID=00:00:00:00:00:0a, FragNumber=0, SeqNumber=0) ns3::MgtAssocRequestHeader (ssid=ns-3-ssid , rates=[6mbs 9mbs 12mbs 18mbs 24mbs 36mbs 48mbs 54mbs] , rates=[0mbs] , HT Capabilities=0|1|0|1 1 1 1 1 1 1 1 0 0 0 0 0 0 0 0 0 0 0 0 0 0 0 0 0 0 0 0 0 0 0 0 0 0 0 0 0 0 0 0 0 0 0 0 0 0 0 0 0 0 0 0 0 0 0 0 0 0 0 0 0 0 0 0 0 0 0 0 0 0 0 0 0 0 0 0 0  , Extended Capabilities=0 , VHT Capabilities=25165828|110056707329556478 , HE Capabilities=0|0|4|0|0|32 , ) 
t 0.120002 /NodeList/6/DeviceList/0/$ns3::WifiNetDevice/Phy/State/Tx OfdmRate6Mbps ns3::WifiMacHeader (MGT_ASSOCIATION_REQUEST ToDS=0, FromDS=0, MoreFrag=0, Retry=0, PowerManagement=0, MoreData=0 Duration/ID=1880us, DA=00:00:00:00:00:0a, SA=00:00:00:00:00:08, BSSID=00:00:00:00:00:0a, FragNumber=0, SeqNumber=0) ns3::MgtAssocRequestHeader (ssid=ns-3-ssid , rates=[6mbs 9mbs 12mbs 18mbs 24mbs 36mbs 48mbs 54mbs] , rates=[0mbs] , HT Capabilities=0|1|0|1 1 1 1 1 1 1 1 0 0 0 0 0 0 0 0 0 0 0 0 0 0 0 0 0 0 0 0 0 0 0 0 0 0 0 0 0 0 0 0 0 0 0 0 0 0 0 0 0 0 0 0 0 0 0 0 0 0 0 0 0 0 0 0 0 0 0 0 0 0 0 0 0 0 0 0 0  , Extended Capabilities=0 , VHT Capabilities=25165828|110056707329556478 , HE Capabilities=0|0|4|0|0|32 , ) 
t 0.120002 /NodeList/7/DeviceList/0/$ns3::WifiNetDevice/Phy/State/Tx OfdmRate6Mbps ns3::WifiMacHeader (MGT_ASSOCIATION_REQUEST ToDS=0, FromDS=0, MoreFrag=0, Retry=0, PowerManagement=0, MoreData=0 Duration/ID=1880us, DA=00:00:00:00:00:0a, SA=00:00:00:00:00:09, BSSID=00:00:00:00:00:0a, FragNumber=0, SeqNumber=0) ns3::MgtAssocRequestHeader (ssid=ns-3-ssid , rates=[6mbs 9mbs 12mbs 18mbs 24mbs 36mbs 48mbs 54mbs] , rates=[0mbs] , HT Capabilities=0|1|0|1 1 1 1 1 1 1 1 0 0 0 0 0 0 0 0 0 0 0 0 0 0 0 0 0 0 0 0 0 0 0 0 0 0 0 0 0 0 0 0 0 0 0 0 0 0 0 0 0 0 0 0 0 0 0 0 0 0 0 0 0 0 0 0 0 0 0 0 0 0 0 0 0 0 0 0 0  , Extended Capabilities=0 , VHT Capabilities=25165828|110056707329556478 , HE Capabilities=0|0|4|0|0|32 , ) 
t 0.120317 /NodeList/5/DeviceList/0/$ns3::WifiNetDevice/Phy/State/Tx OfdmRate6Mbps ns3::WifiMacHeader (MGT_ASSOCIATION_REQUEST ToDS=0, FromDS=0, MoreFrag=0, Retry=1, PowerManagement=0, MoreData=0 Duration/ID=1880us, DA=00:00:00:00:00:0a, SA=00:00:00:00:00:07, BSSID=00:00:00:00:00:0a, FragNumber=0, SeqNumber=0) ns3::MgtAssocRequestHeader (ssid=ns-3-ssid , rates=[6mbs 9mbs 12mbs 18mbs 24mbs 36mbs 48mbs 54mbs] , rates=[0mbs] , HT Capabilities=0|1|0|1 1 1 1 1 1 1 1 0 0 0 0 0 0 0 0 0 0 0 0 0 0 0 0 0 0 0 0 0 0 0 0 0 0 0 0 0 0 0 0 0 0 0 0 0 0 0 0 0 0 0 0 0 0 0 0 0 0 0 0 0 0 0 0 0 0 0 0 0 0 0 0 0 0 0 0 0  , Extended Capabilities=0 , VHT Capabilities=25165828|110056707329556478 , HE Capabilities=0|0|4|0|0|32 , ) 
r 0.120517 OfdmRate6Mbps /NodeList/6/DeviceList/0/$ns3::WifiNetDevice/Phy/State/RxOk ns3::WifiMacHeader (MGT_ASSOCIATION_REQUEST ToDS=0, FromDS=0, MoreFrag=0, Retry=1, PowerManagement=0, MoreData=0 Duration/ID=1880us, DA=00:00:00:00:00:0a, SA=00:00:00:00:00:07, BSSID=00:00:00:00:00:0a, FragNumber=0, SeqNumber=0) ns3::MgtAssocRequestHeader (ssid=ns-3-ssid , rates=[6mbs 9mbs 12mbs 18mbs 24mbs 36mbs 48mbs 54mbs] , rates=[0mbs] , HT Capabilities=0|1|0|1 1 1 1 1 1 1 1 0 0 0 0 0 0 0 0 0 0 0 0 0 0 0 0 0 0 0 0 0 0 0 0 0 0 0 0 0 0 0 0 0 0 0 0 0 0 0 0 0 0 0 0 0 0 0 0 0 0 0 0 0 0 0 0 0 0 0 0 0 0 0 0 0 0 0 0 0  , Extended Capabilities=0 , VHT Capabilities=25165828|110056707329556478 , HE Capabilities=0|0|4|0|0|32 , ) 
r 0.120517 OfdmRate6Mbps /NodeList/7/DeviceList/0/$ns3::WifiNetDevice/Phy/State/RxOk ns3::WifiMacHeader (MGT_ASSOCIATION_REQUEST ToDS=0, FromDS=0, MoreFrag=0, Retry=1, PowerManagement=0, MoreData=0 Duration/ID=1880us, DA=00:00:00:00:00:0a, SA=00:00:00:00:00:07, BSSID=00:00:00:00:00:0a, FragNumber=0, SeqNumber=0) ns3::MgtAssocRequestHeader (ssid=ns-3-ssid , rates=[6mbs 9mbs 12mbs 18mbs 24mbs 36mbs 48mbs 54mbs] , rates=[0mbs] , HT Capabilities=0|1|0|1 1 1 1 1 1 1 1 0 0 0 0 0 0 0 0 0 0 0 0 0 0 0 0 0 0 0 0 0 0 0 0 0 0 0 0 0 0 0 0 0 0 0 0 0 0 0 0 0 0 0 0 0 0 0 0 0 0 0 0 0 0 0 0 0 0 0 0 0 0 0 0 0 0 0 0 0  , Extended Capabilities=0 , VHT Capabilities=25165828|110056707329556478 , HE Capabilities=0|0|4|0|0|32 , ) 
r 0.120517 OfdmRate6Mbps /NodeList/0/DeviceList/1/$ns3::WifiNetDevice/Phy/State/RxOk ns3::WifiMacHeader (MGT_ASSOCIATION_REQUEST ToDS=0, FromDS=0, MoreFrag=0, Retry=1, PowerManagement=0, MoreData=0 Duration/ID=1880us, DA=00:00:00:00:00:0a, SA=00:00:00:00:00:07, BSSID=00:00:00:00:00:0a, FragNumber=0, SeqNumber=0) ns3::MgtAssocRequestHeader (ssid=ns-3-ssid , rates=[6mbs 9mbs 12mbs 18mbs 24mbs 36mbs 48mbs 54mbs] , rates=[0mbs] , HT Capabilities=0|1|0|1 1 1 1 1 1 1 1 0 0 0 0 0 0 0 0 0 0 0 0 0 0 0 0 0 0 0 0 0 0 0 0 0 0 0 0 0 0 0 0 0 0 0 0 0 0 0 0 0 0 0 0 0 0 0 0 0 0 0 0 0 0 0 0 0 0 0 0 0 0 0 0 0 0 0 0 0  , Extended Capabilities=0 , VHT Capabilities=25165828|110056707329556478 , HE Capabilities=0|0|4|0|0|32 , ) 
t 0.120533 /NodeList/0/DeviceList/1/$ns3::WifiNetDevice/Phy/State/Tx OfdmRate6Mbps ns3::WifiMacHeader (CTL_ACK Duration/ID=1820us, RA=00:00:00:00:00:07) 
r 0.120577 OfdmRate6Mbps /NodeList/5/DeviceList/0/$ns3::WifiNetDevice/Phy/State/RxOk ns3::WifiMacHeader (CTL_ACK Duration/ID=1820us, RA=00:00:00:00:00:07) 
r 0.120577 OfdmRate6Mbps /NodeList/6/DeviceList/0/$ns3::WifiNetDevice/Phy/State/RxOk ns3::WifiMacHeader (CTL_ACK Duration/ID=1820us, RA=00:00:00:00:00:07) 
r 0.120577 OfdmRate6Mbps /NodeList/7/DeviceList/0/$ns3::WifiNetDevice/Phy/State/RxOk ns3::WifiMacHeader (CTL_ACK Duration/ID=1820us, RA=00:00:00:00:00:07) 
t 0.120593 /NodeList/5/DeviceList/0/$ns3::WifiNetDevice/Phy/State/Tx OfdmRate6Mbps ns3::WifiMacHeader (CTL_END ) 
r 0.120645 OfdmRate6Mbps /NodeList/6/DeviceList/0/$ns3::WifiNetDevice/Phy/State/RxOk ns3::WifiMacHeader (CTL_END ) 
r 0.120645 OfdmRate6Mbps /NodeList/7/DeviceList/0/$ns3::WifiNetDevice/Phy/State/RxOk ns3::WifiMacHeader (CTL_END ) 
r 0.120645 OfdmRate6Mbps /NodeList/0/DeviceList/1/$ns3::WifiNetDevice/Phy/State/RxOk ns3::WifiMacHeader (CTL_END ) 
t 0.120679 /NodeList/0/DeviceList/1/$ns3::WifiNetDevice/Phy/State/Tx OfdmRate6Mbps ns3::WifiMacHeader (MGT_ASSOCIATION_RESPONSE ToDS=0, FromDS=0, MoreFrag=0, Retry=0, PowerManagement=0, MoreData=0 Duration/ID=1812us, DA=00:00:00:00:00:07, SA=00:00:00:00:00:0a, BSSID=00:00:00:00:00:0a, FragNumber=0, SeqNumber=1) ns3::MgtAssocResponseHeader (status code=success, aid=1, rates=[*6mbs 9mbs *12mbs 18mbs *24mbs 36mbs 48mbs 54mbs] , rates=[0mbs] ,  , HT Capabilities=0|1|0|1 1 1 1 1 1 1 1 0 0 0 0 0 0 0 0 0 0 0 0 0 0 0 0 0 0 0 0 0 0 0 0 0 0 0 0 0 0 0 0 0 0 0 0 0 0 0 0 0 0 0 0 0 0 0 0 0 0 0 0 0 0 0 0 0 0 0 0 0 0 0 0 0 0 0 0 0  , HT Operation=1|1|1|0|0|1|0|0|0|0|0|0|0|65|1|0|0|0|1 0 0 0 0 0 0 0 0 0 0 0 0 0 0 0 0 0 0 0 0 0 0 0 0 0 0 0 0 0 0 0 0 0 0 0 0 0 0 0 0 0 0 0 0 0 0 0 0 0 0 0 0 0 0 0 0 0 0 0 0 0 0 0 0 0 0 0 0 0 0 0 0 0 0 0 0  , Extended Capabilities=0 , VHT Capabilities=25165828|110056707329556478 , VHT Operation=1|42|0|2 , HE Capabilities=0|0|4|0|0|32 , HE Operation=0|65534 , ) 
r 0.120947 OfdmRate6Mbps /NodeList/5/DeviceList/0/$ns3::WifiNetDevice/Phy/State/RxOk ns3::WifiMacHeader (MGT_ASSOCIATION_RESPONSE ToDS=0, FromDS=0, MoreFrag=0, Retry=0, PowerManagement=0, MoreData=0 Duration/ID=1812us, DA=00:00:00:00:00:07, SA=00:00:00:00:00:0a, BSSID=00:00:00:00:00:0a, FragNumber=0, SeqNumber=1) ns3::MgtAssocResponseHeader (status code=success, aid=1, rates=[*6mbs 9mbs *12mbs 18mbs *24mbs 36mbs 48mbs 54mbs] , rates=[0mbs] ,  , HT Capabilities=0|1|0|1 1 1 1 1 1 1 1 0 0 0 0 0 0 0 0 0 0 0 0 0 0 0 0 0 0 0 0 0 0 0 0 0 0 0 0 0 0 0 0 0 0 0 0 0 0 0 0 0 0 0 0 0 0 0 0 0 0 0 0 0 0 0 0 0 0 0 0 0 0 0 0 0 0 0 0 0  , HT Operation=1|1|1|0|0|1|0|0|0|0|0|0|0|65|1|0|0|0|1 0 0 0 0 0 0 0 0 0 0 0 0 0 0 0 0 0 0 0 0 0 0 0 0 0 0 0 0 0 0 0 0 0 0 0 0 0 0 0 0 0 0 0 0 0 0 0 0 0 0 0 0 0 0 0 0 0 0 0 0 0 0 0 0 0 0 0 0 0 0 0 0 0 0 0 0  , Extended Capabilities=0 , VHT Capabilities=25165828|110056707329556478 , VHT Operation=1|42|0|2 , HE Capabilities=0|0|4|0|0|32 , HE Operation=0|65534 , ) 
r 0.120947 OfdmRate6Mbps /NodeList/6/DeviceList/0/$ns3::WifiNetDevice/Phy/State/RxOk ns3::WifiMacHeader (MGT_ASSOCIATION_RESPONSE ToDS=0, FromDS=0, MoreFrag=0, Retry=0, PowerManagement=0, MoreData=0 Duration/ID=1812us, DA=00:00:00:00:00:07, SA=00:00:00:00:00:0a, BSSID=00:00:00:00:00:0a, FragNumber=0, SeqNumber=1) ns3::MgtAssocResponseHeader (status code=success, aid=1, rates=[*6mbs 9mbs *12mbs 18mbs *24mbs 36mbs 48mbs 54mbs] , rates=[0mbs] ,  , HT Capabilities=0|1|0|1 1 1 1 1 1 1 1 0 0 0 0 0 0 0 0 0 0 0 0 0 0 0 0 0 0 0 0 0 0 0 0 0 0 0 0 0 0 0 0 0 0 0 0 0 0 0 0 0 0 0 0 0 0 0 0 0 0 0 0 0 0 0 0 0 0 0 0 0 0 0 0 0 0 0 0 0  , HT Operation=1|1|1|0|0|1|0|0|0|0|0|0|0|65|1|0|0|0|1 0 0 0 0 0 0 0 0 0 0 0 0 0 0 0 0 0 0 0 0 0 0 0 0 0 0 0 0 0 0 0 0 0 0 0 0 0 0 0 0 0 0 0 0 0 0 0 0 0 0 0 0 0 0 0 0 0 0 0 0 0 0 0 0 0 0 0 0 0 0 0 0 0 0 0 0  , Extended Capabilities=0 , VHT Capabilities=25165828|110056707329556478 , VHT Operation=1|42|0|2 , HE Capabilities=0|0|4|0|0|32 , HE Operation=0|65534 , ) 
r 0.120947 OfdmRate6Mbps /NodeList/7/DeviceList/0/$ns3::WifiNetDevice/Phy/State/RxOk ns3::WifiMacHeader (MGT_ASSOCIATION_RESPONSE ToDS=0, FromDS=0, MoreFrag=0, Retry=0, PowerManagement=0, MoreData=0 Duration/ID=1812us, DA=00:00:00:00:00:07, SA=00:00:00:00:00:0a, BSSID=00:00:00:00:00:0a, FragNumber=0, SeqNumber=1) ns3::MgtAssocResponseHeader (status code=success, aid=1, rates=[*6mbs 9mbs *12mbs 18mbs *24mbs 36mbs 48mbs 54mbs] , rates=[0mbs] ,  , HT Capabilities=0|1|0|1 1 1 1 1 1 1 1 0 0 0 0 0 0 0 0 0 0 0 0 0 0 0 0 0 0 0 0 0 0 0 0 0 0 0 0 0 0 0 0 0 0 0 0 0 0 0 0 0 0 0 0 0 0 0 0 0 0 0 0 0 0 0 0 0 0 0 0 0 0 0 0 0 0 0 0 0  , HT Operation=1|1|1|0|0|1|0|0|0|0|0|0|0|65|1|0|0|0|1 0 0 0 0 0 0 0 0 0 0 0 0 0 0 0 0 0 0 0 0 0 0 0 0 0 0 0 0 0 0 0 0 0 0 0 0 0 0 0 0 0 0 0 0 0 0 0 0 0 0 0 0 0 0 0 0 0 0 0 0 0 0 0 0 0 0 0 0 0 0 0 0 0 0 0 0  , Extended Capabilities=0 , VHT Capabilities=25165828|110056707329556478 , VHT Operation=1|42|0|2 , HE Capabilities=0|0|4|0|0|32 , HE Operation=0|65534 , ) 
t 0.120963 /NodeList/5/DeviceList/0/$ns3::WifiNetDevice/Phy/State/Tx OfdmRate6Mbps ns3::WifiMacHeader (CTL_ACK Duration/ID=1752us, RA=00:00:00:00:00:0a) 
r 0.121007 OfdmRate6Mbps /NodeList/6/DeviceList/0/$ns3::WifiNetDevice/Phy/State/RxOk ns3::WifiMacHeader (CTL_ACK Duration/ID=1752us, RA=00:00:00:00:00:0a) 
r 0.121007 OfdmRate6Mbps /NodeList/7/DeviceList/0/$ns3::WifiNetDevice/Phy/State/RxOk ns3::WifiMacHeader (CTL_ACK Duration/ID=1752us, RA=00:00:00:00:00:0a) 
r 0.121007 OfdmRate6Mbps /NodeList/0/DeviceList/1/$ns3::WifiNetDevice/Phy/State/RxOk ns3::WifiMacHeader (CTL_ACK Duration/ID=1752us, RA=00:00:00:00:00:0a) 
t 0.121023 /NodeList/0/DeviceList/1/$ns3::WifiNetDevice/Phy/State/Tx OfdmRate6Mbps ns3::WifiMacHeader (CTL_END ) 
r 0.121075 OfdmRate6Mbps /NodeList/5/DeviceList/0/$ns3::WifiNetDevice/Phy/State/RxOk ns3::WifiMacHeader (CTL_END ) 
r 0.121075 OfdmRate6Mbps /NodeList/6/DeviceList/0/$ns3::WifiNetDevice/Phy/State/RxOk ns3::WifiMacHeader (CTL_END ) 
r 0.121075 OfdmRate6Mbps /NodeList/7/DeviceList/0/$ns3::WifiNetDevice/Phy/State/RxOk ns3::WifiMacHeader (CTL_END ) 
t 0.121109 /NodeList/6/DeviceList/0/$ns3::WifiNetDevice/Phy/State/Tx OfdmRate6Mbps ns3::WifiMacHeader (MGT_ASSOCIATION_REQUEST ToDS=0, FromDS=0, MoreFrag=0, Retry=1, PowerManagement=0, MoreData=0 Duration/ID=1880us, DA=00:00:00:00:00:0a, SA=00:00:00:00:00:08, BSSID=00:00:00:00:00:0a, FragNumber=0, SeqNumber=0) ns3::MgtAssocRequestHeader (ssid=ns-3-ssid , rates=[6mbs 9mbs 12mbs 18mbs 24mbs 36mbs 48mbs 54mbs] , rates=[0mbs] , HT Capabilities=0|1|0|1 1 1 1 1 1 1 1 0 0 0 0 0 0 0 0 0 0 0 0 0 0 0 0 0 0 0 0 0 0 0 0 0 0 0 0 0 0 0 0 0 0 0 0 0 0 0 0 0 0 0 0 0 0 0 0 0 0 0 0 0 0 0 0 0 0 0 0 0 0 0 0 0 0 0 0 0  , Extended Capabilities=0 , VHT Capabilities=25165828|110056707329556478 , HE Capabilities=0|0|4|0|0|32 , ) 
r 0.121309 OfdmRate6Mbps /NodeList/7/DeviceList/0/$ns3::WifiNetDevice/Phy/State/RxOk ns3::WifiMacHeader (MGT_ASSOCIATION_REQUEST ToDS=0, FromDS=0, MoreFrag=0, Retry=1, PowerManagement=0, MoreData=0 Duration/ID=1880us, DA=00:00:00:00:00:0a, SA=00:00:00:00:00:08, BSSID=00:00:00:00:00:0a, FragNumber=0, SeqNumber=0) ns3::MgtAssocRequestHeader (ssid=ns-3-ssid , rates=[6mbs 9mbs 12mbs 18mbs 24mbs 36mbs 48mbs 54mbs] , rates=[0mbs] , HT Capabilities=0|1|0|1 1 1 1 1 1 1 1 0 0 0 0 0 0 0 0 0 0 0 0 0 0 0 0 0 0 0 0 0 0 0 0 0 0 0 0 0 0 0 0 0 0 0 0 0 0 0 0 0 0 0 0 0 0 0 0 0 0 0 0 0 0 0 0 0 0 0 0 0 0 0 0 0 0 0 0 0  , Extended Capabilities=0 , VHT Capabilities=25165828|110056707329556478 , HE Capabilities=0|0|4|0|0|32 , ) 
r 0.121309 OfdmRate6Mbps /NodeList/5/DeviceList/0/$ns3::WifiNetDevice/Phy/State/RxOk ns3::WifiMacHeader (MGT_ASSOCIATION_REQUEST ToDS=0, FromDS=0, MoreFrag=0, Retry=1, PowerManagement=0, MoreData=0 Duration/ID=1880us, DA=00:00:00:00:00:0a, SA=00:00:00:00:00:08, BSSID=00:00:00:00:00:0a, FragNumber=0, SeqNumber=0) ns3::MgtAssocRequestHeader (ssid=ns-3-ssid , rates=[6mbs 9mbs 12mbs 18mbs 24mbs 36mbs 48mbs 54mbs] , rates=[0mbs] , HT Capabilities=0|1|0|1 1 1 1 1 1 1 1 0 0 0 0 0 0 0 0 0 0 0 0 0 0 0 0 0 0 0 0 0 0 0 0 0 0 0 0 0 0 0 0 0 0 0 0 0 0 0 0 0 0 0 0 0 0 0 0 0 0 0 0 0 0 0 0 0 0 0 0 0 0 0 0 0 0 0 0 0  , Extended Capabilities=0 , VHT Capabilities=25165828|110056707329556478 , HE Capabilities=0|0|4|0|0|32 , ) 
r 0.121309 OfdmRate6Mbps /NodeList/0/DeviceList/1/$ns3::WifiNetDevice/Phy/State/RxOk ns3::WifiMacHeader (MGT_ASSOCIATION_REQUEST ToDS=0, FromDS=0, MoreFrag=0, Retry=1, PowerManagement=0, MoreData=0 Duration/ID=1880us, DA=00:00:00:00:00:0a, SA=00:00:00:00:00:08, BSSID=00:00:00:00:00:0a, FragNumber=0, SeqNumber=0) ns3::MgtAssocRequestHeader (ssid=ns-3-ssid , rates=[6mbs 9mbs 12mbs 18mbs 24mbs 36mbs 48mbs 54mbs] , rates=[0mbs] , HT Capabilities=0|1|0|1 1 1 1 1 1 1 1 0 0 0 0 0 0 0 0 0 0 0 0 0 0 0 0 0 0 0 0 0 0 0 0 0 0 0 0 0 0 0 0 0 0 0 0 0 0 0 0 0 0 0 0 0 0 0 0 0 0 0 0 0 0 0 0 0 0 0 0 0 0 0 0 0 0 0 0 0  , Extended Capabilities=0 , VHT Capabilities=25165828|110056707329556478 , HE Capabilities=0|0|4|0|0|32 , ) 
t 0.121325 /NodeList/0/DeviceList/1/$ns3::WifiNetDevice/Phy/State/Tx OfdmRate6Mbps ns3::WifiMacHeader (CTL_ACK Duration/ID=1820us, RA=00:00:00:00:00:08) 
r 0.121369 OfdmRate6Mbps /NodeList/5/DeviceList/0/$ns3::WifiNetDevice/Phy/State/RxOk ns3::WifiMacHeader (CTL_ACK Duration/ID=1820us, RA=00:00:00:00:00:08) 
r 0.121369 OfdmRate6Mbps /NodeList/6/DeviceList/0/$ns3::WifiNetDevice/Phy/State/RxOk ns3::WifiMacHeader (CTL_ACK Duration/ID=1820us, RA=00:00:00:00:00:08) 
r 0.121369 OfdmRate6Mbps /NodeList/7/DeviceList/0/$ns3::WifiNetDevice/Phy/State/RxOk ns3::WifiMacHeader (CTL_ACK Duration/ID=1820us, RA=00:00:00:00:00:08) 
t 0.121385 /NodeList/6/DeviceList/0/$ns3::WifiNetDevice/Phy/State/Tx OfdmRate6Mbps ns3::WifiMacHeader (CTL_END ) 
r 0.121437 OfdmRate6Mbps /NodeList/7/DeviceList/0/$ns3::WifiNetDevice/Phy/State/RxOk ns3::WifiMacHeader (CTL_END ) 
r 0.121437 OfdmRate6Mbps /NodeList/5/DeviceList/0/$ns3::WifiNetDevice/Phy/State/RxOk ns3::WifiMacHeader (CTL_END ) 
r 0.121437 OfdmRate6Mbps /NodeList/0/DeviceList/1/$ns3::WifiNetDevice/Phy/State/RxOk ns3::WifiMacHeader (CTL_END ) 
t 0.121471 /NodeList/7/DeviceList/0/$ns3::WifiNetDevice/Phy/State/Tx OfdmRate6Mbps ns3::WifiMacHeader (MGT_ASSOCIATION_REQUEST ToDS=0, FromDS=0, MoreFrag=0, Retry=1, PowerManagement=0, MoreData=0 Duration/ID=1880us, DA=00:00:00:00:00:0a, SA=00:00:00:00:00:09, BSSID=00:00:00:00:00:0a, FragNumber=0, SeqNumber=0) ns3::MgtAssocRequestHeader (ssid=ns-3-ssid , rates=[6mbs 9mbs 12mbs 18mbs 24mbs 36mbs 48mbs 54mbs] , rates=[0mbs] , HT Capabilities=0|1|0|1 1 1 1 1 1 1 1 0 0 0 0 0 0 0 0 0 0 0 0 0 0 0 0 0 0 0 0 0 0 0 0 0 0 0 0 0 0 0 0 0 0 0 0 0 0 0 0 0 0 0 0 0 0 0 0 0 0 0 0 0 0 0 0 0 0 0 0 0 0 0 0 0 0 0 0 0  , Extended Capabilities=0 , VHT Capabilities=25165828|110056707329556478 , HE Capabilities=0|0|4|0|0|32 , ) 
t 0.121471 /NodeList/0/DeviceList/1/$ns3::WifiNetDevice/Phy/State/Tx OfdmRate6Mbps ns3::WifiMacHeader (MGT_ASSOCIATION_RESPONSE ToDS=0, FromDS=0, MoreFrag=0, Retry=0, PowerManagement=0, MoreData=0 Duration/ID=1812us, DA=00:00:00:00:00:08, SA=00:00:00:00:00:0a, BSSID=00:00:00:00:00:0a, FragNumber=0, SeqNumber=2) ns3::MgtAssocResponseHeader (status code=success, aid=2, rates=[*6mbs 9mbs *12mbs 18mbs *24mbs 36mbs 48mbs 54mbs] , rates=[0mbs] ,  , HT Capabilities=0|1|0|1 1 1 1 1 1 1 1 0 0 0 0 0 0 0 0 0 0 0 0 0 0 0 0 0 0 0 0 0 0 0 0 0 0 0 0 0 0 0 0 0 0 0 0 0 0 0 0 0 0 0 0 0 0 0 0 0 0 0 0 0 0 0 0 0 0 0 0 0 0 0 0 0 0 0 0 0  , HT Operation=1|1|1|0|0|1|0|0|0|0|0|0|0|65|1|0|0|0|1 0 0 0 0 0 0 0 0 0 0 0 0 0 0 0 0 0 0 0 0 0 0 0 0 0 0 0 0 0 0 0 0 0 0 0 0 0 0 0 0 0 0 0 0 0 0 0 0 0 0 0 0 0 0 0 0 0 0 0 0 0 0 0 0 0 0 0 0 0 0 0 0 0 0 0 0  , Extended Capabilities=0 , VHT Capabilities=25165828|110056707329556478 , VHT Operation=1|42|0|2 , HE Capabilities=0|0|4|0|0|32 , HE Operation=0|65534 , ) 
r 0.121671 OfdmRate6Mbps /NodeList/6/DeviceList/0/$ns3::WifiNetDevice/Phy/State/RxOk ns3::WifiMacHeader (MGT_ASSOCIATION_REQUEST ToDS=0, FromDS=0, MoreFrag=0, Retry=1, PowerManagement=0, MoreData=0 Duration/ID=1880us, DA=00:00:00:00:00:0a, SA=00:00:00:00:00:09, BSSID=00:00:00:00:00:0a, FragNumber=0, SeqNumber=0) ns3::MgtAssocRequestHeader (ssid=ns-3-ssid , rates=[6mbs 9mbs 12mbs 18mbs 24mbs 36mbs 48mbs 54mbs] , rates=[0mbs] , HT Capabilities=0|1|0|1 1 1 1 1 1 1 1 0 0 0 0 0 0 0 0 0 0 0 0 0 0 0 0 0 0 0 0 0 0 0 0 0 0 0 0 0 0 0 0 0 0 0 0 0 0 0 0 0 0 0 0 0 0 0 0 0 0 0 0 0 0 0 0 0 0 0 0 0 0 0 0 0 0 0 0 0  , Extended Capabilities=0 , VHT Capabilities=25165828|110056707329556478 , HE Capabilities=0|0|4|0|0|32 , ) 
t 0.121768 /NodeList/7/DeviceList/0/$ns3::WifiNetDevice/Phy/State/Tx OfdmRate6Mbps ns3::WifiMacHeader (MGT_ASSOCIATION_REQUEST ToDS=0, FromDS=0, MoreFrag=0, Retry=1, PowerManagement=0, MoreData=0 Duration/ID=1880us, DA=00:00:00:00:00:0a, SA=00:00:00:00:00:09, BSSID=00:00:00:00:00:0a, FragNumber=0, SeqNumber=0) ns3::MgtAssocRequestHeader (ssid=ns-3-ssid , rates=[6mbs 9mbs 12mbs 18mbs 24mbs 36mbs 48mbs 54mbs] , rates=[0mbs] , HT Capabilities=0|1|0|1 1 1 1 1 1 1 1 0 0 0 0 0 0 0 0 0 0 0 0 0 0 0 0 0 0 0 0 0 0 0 0 0 0 0 0 0 0 0 0 0 0 0 0 0 0 0 0 0 0 0 0 0 0 0 0 0 0 0 0 0 0 0 0 0 0 0 0 0 0 0 0 0 0 0 0 0  , Extended Capabilities=0 , VHT Capabilities=25165828|110056707329556478 , HE Capabilities=0|0|4|0|0|32 , ) 
r 0.121968 OfdmRate6Mbps /NodeList/6/DeviceList/0/$ns3::WifiNetDevice/Phy/State/RxOk ns3::WifiMacHeader (MGT_ASSOCIATION_REQUEST ToDS=0, FromDS=0, MoreFrag=0, Retry=1, PowerManagement=0, MoreData=0 Duration/ID=1880us, DA=00:00:00:00:00:0a, SA=00:00:00:00:00:09, BSSID=00:00:00:00:00:0a, FragNumber=0, SeqNumber=0) ns3::MgtAssocRequestHeader (ssid=ns-3-ssid , rates=[6mbs 9mbs 12mbs 18mbs 24mbs 36mbs 48mbs 54mbs] , rates=[0mbs] , HT Capabilities=0|1|0|1 1 1 1 1 1 1 1 0 0 0 0 0 0 0 0 0 0 0 0 0 0 0 0 0 0 0 0 0 0 0 0 0 0 0 0 0 0 0 0 0 0 0 0 0 0 0 0 0 0 0 0 0 0 0 0 0 0 0 0 0 0 0 0 0 0 0 0 0 0 0 0 0 0 0 0 0  , Extended Capabilities=0 , VHT Capabilities=25165828|110056707329556478 , HE Capabilities=0|0|4|0|0|32 , ) 
r 0.121968 OfdmRate6Mbps /NodeList/5/DeviceList/0/$ns3::WifiNetDevice/Phy/State/RxOk ns3::WifiMacHeader (MGT_ASSOCIATION_REQUEST ToDS=0, FromDS=0, MoreFrag=0, Retry=1, PowerManagement=0, MoreData=0 Duration/ID=1880us, DA=00:00:00:00:00:0a, SA=00:00:00:00:00:09, BSSID=00:00:00:00:00:0a, FragNumber=0, SeqNumber=0) ns3::MgtAssocRequestHeader (ssid=ns-3-ssid , rates=[6mbs 9mbs 12mbs 18mbs 24mbs 36mbs 48mbs 54mbs] , rates=[0mbs] , HT Capabilities=0|1|0|1 1 1 1 1 1 1 1 0 0 0 0 0 0 0 0 0 0 0 0 0 0 0 0 0 0 0 0 0 0 0 0 0 0 0 0 0 0 0 0 0 0 0 0 0 0 0 0 0 0 0 0 0 0 0 0 0 0 0 0 0 0 0 0 0 0 0 0 0 0 0 0 0 0 0 0 0  , Extended Capabilities=0 , VHT Capabilities=25165828|110056707329556478 , HE Capabilities=0|0|4|0|0|32 , ) 
r 0.121968 OfdmRate6Mbps /NodeList/0/DeviceList/1/$ns3::WifiNetDevice/Phy/State/RxOk ns3::WifiMacHeader (MGT_ASSOCIATION_REQUEST ToDS=0, FromDS=0, MoreFrag=0, Retry=1, PowerManagement=0, MoreData=0 Duration/ID=1880us, DA=00:00:00:00:00:0a, SA=00:00:00:00:00:09, BSSID=00:00:00:00:00:0a, FragNumber=0, SeqNumber=0) ns3::MgtAssocRequestHeader (ssid=ns-3-ssid , rates=[6mbs 9mbs 12mbs 18mbs 24mbs 36mbs 48mbs 54mbs] , rates=[0mbs] , HT Capabilities=0|1|0|1 1 1 1 1 1 1 1 0 0 0 0 0 0 0 0 0 0 0 0 0 0 0 0 0 0 0 0 0 0 0 0 0 0 0 0 0 0 0 0 0 0 0 0 0 0 0 0 0 0 0 0 0 0 0 0 0 0 0 0 0 0 0 0 0 0 0 0 0 0 0 0 0 0 0 0 0  , Extended Capabilities=0 , VHT Capabilities=25165828|110056707329556478 , HE Capabilities=0|0|4|0|0|32 , ) 
t 0.121984 /NodeList/0/DeviceList/1/$ns3::WifiNetDevice/Phy/State/Tx OfdmRate6Mbps ns3::WifiMacHeader (CTL_ACK Duration/ID=1820us, RA=00:00:00:00:00:09) 
r 0.122028 OfdmRate6Mbps /NodeList/5/DeviceList/0/$ns3::WifiNetDevice/Phy/State/RxOk ns3::WifiMacHeader (CTL_ACK Duration/ID=1820us, RA=00:00:00:00:00:09) 
r 0.122028 OfdmRate6Mbps /NodeList/6/DeviceList/0/$ns3::WifiNetDevice/Phy/State/RxOk ns3::WifiMacHeader (CTL_ACK Duration/ID=1820us, RA=00:00:00:00:00:09) 
r 0.122028 OfdmRate6Mbps /NodeList/7/DeviceList/0/$ns3::WifiNetDevice/Phy/State/RxOk ns3::WifiMacHeader (CTL_ACK Duration/ID=1820us, RA=00:00:00:00:00:09) 
t 0.122044 /NodeList/7/DeviceList/0/$ns3::WifiNetDevice/Phy/State/Tx OfdmRate6Mbps ns3::WifiMacHeader (CTL_END ) 
r 0.122096 OfdmRate6Mbps /NodeList/6/DeviceList/0/$ns3::WifiNetDevice/Phy/State/RxOk ns3::WifiMacHeader (CTL_END ) 
r 0.122096 OfdmRate6Mbps /NodeList/5/DeviceList/0/$ns3::WifiNetDevice/Phy/State/RxOk ns3::WifiMacHeader (CTL_END ) 
r 0.122096 OfdmRate6Mbps /NodeList/0/DeviceList/1/$ns3::WifiNetDevice/Phy/State/RxOk ns3::WifiMacHeader (CTL_END ) 
t 0.122148 /NodeList/0/DeviceList/1/$ns3::WifiNetDevice/Phy/State/Tx OfdmRate6Mbps ns3::WifiMacHeader (MGT_ASSOCIATION_RESPONSE ToDS=0, FromDS=0, MoreFrag=0, Retry=1, PowerManagement=0, MoreData=0 Duration/ID=1812us, DA=00:00:00:00:00:08, SA=00:00:00:00:00:0a, BSSID=00:00:00:00:00:0a, FragNumber=0, SeqNumber=2) ns3::MgtAssocResponseHeader (status code=success, aid=2, rates=[*6mbs 9mbs *12mbs 18mbs *24mbs 36mbs 48mbs 54mbs] , rates=[0mbs] ,  , HT Capabilities=0|1|0|1 1 1 1 1 1 1 1 0 0 0 0 0 0 0 0 0 0 0 0 0 0 0 0 0 0 0 0 0 0 0 0 0 0 0 0 0 0 0 0 0 0 0 0 0 0 0 0 0 0 0 0 0 0 0 0 0 0 0 0 0 0 0 0 0 0 0 0 0 0 0 0 0 0 0 0 0  , HT Operation=1|1|1|0|0|1|0|0|0|0|0|0|0|65|1|0|0|0|1 0 0 0 0 0 0 0 0 0 0 0 0 0 0 0 0 0 0 0 0 0 0 0 0 0 0 0 0 0 0 0 0 0 0 0 0 0 0 0 0 0 0 0 0 0 0 0 0 0 0 0 0 0 0 0 0 0 0 0 0 0 0 0 0 0 0 0 0 0 0 0 0 0 0 0 0  , Extended Capabilities=0 , VHT Capabilities=25165828|110056707329556478 , VHT Operation=1|42|0|2 , HE Capabilities=0|0|4|0|0|32 , HE Operation=0|65534 , ) 
r 0.122417 OfdmRate6Mbps /NodeList/5/DeviceList/0/$ns3::WifiNetDevice/Phy/State/RxOk ns3::WifiMacHeader (MGT_ASSOCIATION_RESPONSE ToDS=0, FromDS=0, MoreFrag=0, Retry=1, PowerManagement=0, MoreData=0 Duration/ID=1812us, DA=00:00:00:00:00:08, SA=00:00:00:00:00:0a, BSSID=00:00:00:00:00:0a, FragNumber=0, SeqNumber=2) ns3::MgtAssocResponseHeader (status code=success, aid=2, rates=[*6mbs 9mbs *12mbs 18mbs *24mbs 36mbs 48mbs 54mbs] , rates=[0mbs] ,  , HT Capabilities=0|1|0|1 1 1 1 1 1 1 1 0 0 0 0 0 0 0 0 0 0 0 0 0 0 0 0 0 0 0 0 0 0 0 0 0 0 0 0 0 0 0 0 0 0 0 0 0 0 0 0 0 0 0 0 0 0 0 0 0 0 0 0 0 0 0 0 0 0 0 0 0 0 0 0 0 0 0 0 0  , HT Operation=1|1|1|0|0|1|0|0|0|0|0|0|0|65|1|0|0|0|1 0 0 0 0 0 0 0 0 0 0 0 0 0 0 0 0 0 0 0 0 0 0 0 0 0 0 0 0 0 0 0 0 0 0 0 0 0 0 0 0 0 0 0 0 0 0 0 0 0 0 0 0 0 0 0 0 0 0 0 0 0 0 0 0 0 0 0 0 0 0 0 0 0 0 0 0  , Extended Capabilities=0 , VHT Capabilities=25165828|110056707329556478 , VHT Operation=1|42|0|2 , HE Capabilities=0|0|4|0|0|32 , HE Operation=0|65534 , ) 
r 0.122417 OfdmRate6Mbps /NodeList/6/DeviceList/0/$ns3::WifiNetDevice/Phy/State/RxOk ns3::WifiMacHeader (MGT_ASSOCIATION_RESPONSE ToDS=0, FromDS=0, MoreFrag=0, Retry=1, PowerManagement=0, MoreData=0 Duration/ID=1812us, DA=00:00:00:00:00:08, SA=00:00:00:00:00:0a, BSSID=00:00:00:00:00:0a, FragNumber=0, SeqNumber=2) ns3::MgtAssocResponseHeader (status code=success, aid=2, rates=[*6mbs 9mbs *12mbs 18mbs *24mbs 36mbs 48mbs 54mbs] , rates=[0mbs] ,  , HT Capabilities=0|1|0|1 1 1 1 1 1 1 1 0 0 0 0 0 0 0 0 0 0 0 0 0 0 0 0 0 0 0 0 0 0 0 0 0 0 0 0 0 0 0 0 0 0 0 0 0 0 0 0 0 0 0 0 0 0 0 0 0 0 0 0 0 0 0 0 0 0 0 0 0 0 0 0 0 0 0 0 0  , HT Operation=1|1|1|0|0|1|0|0|0|0|0|0|0|65|1|0|0|0|1 0 0 0 0 0 0 0 0 0 0 0 0 0 0 0 0 0 0 0 0 0 0 0 0 0 0 0 0 0 0 0 0 0 0 0 0 0 0 0 0 0 0 0 0 0 0 0 0 0 0 0 0 0 0 0 0 0 0 0 0 0 0 0 0 0 0 0 0 0 0 0 0 0 0 0 0  , Extended Capabilities=0 , VHT Capabilities=25165828|110056707329556478 , VHT Operation=1|42|0|2 , HE Capabilities=0|0|4|0|0|32 , HE Operation=0|65534 , ) 
r 0.122417 OfdmRate6Mbps /NodeList/7/DeviceList/0/$ns3::WifiNetDevice/Phy/State/RxOk ns3::WifiMacHeader (MGT_ASSOCIATION_RESPONSE ToDS=0, FromDS=0, MoreFrag=0, Retry=1, PowerManagement=0, MoreData=0 Duration/ID=1812us, DA=00:00:00:00:00:08, SA=00:00:00:00:00:0a, BSSID=00:00:00:00:00:0a, FragNumber=0, SeqNumber=2) ns3::MgtAssocResponseHeader (status code=success, aid=2, rates=[*6mbs 9mbs *12mbs 18mbs *24mbs 36mbs 48mbs 54mbs] , rates=[0mbs] ,  , HT Capabilities=0|1|0|1 1 1 1 1 1 1 1 0 0 0 0 0 0 0 0 0 0 0 0 0 0 0 0 0 0 0 0 0 0 0 0 0 0 0 0 0 0 0 0 0 0 0 0 0 0 0 0 0 0 0 0 0 0 0 0 0 0 0 0 0 0 0 0 0 0 0 0 0 0 0 0 0 0 0 0 0  , HT Operation=1|1|1|0|0|1|0|0|0|0|0|0|0|65|1|0|0|0|1 0 0 0 0 0 0 0 0 0 0 0 0 0 0 0 0 0 0 0 0 0 0 0 0 0 0 0 0 0 0 0 0 0 0 0 0 0 0 0 0 0 0 0 0 0 0 0 0 0 0 0 0 0 0 0 0 0 0 0 0 0 0 0 0 0 0 0 0 0 0 0 0 0 0 0 0  , Extended Capabilities=0 , VHT Capabilities=25165828|110056707329556478 , VHT Operation=1|42|0|2 , HE Capabilities=0|0|4|0|0|32 , HE Operation=0|65534 , ) 
t 0.122433 /NodeList/6/DeviceList/0/$ns3::WifiNetDevice/Phy/State/Tx OfdmRate6Mbps ns3::WifiMacHeader (CTL_ACK Duration/ID=1752us, RA=00:00:00:00:00:0a) 
r 0.122477 OfdmRate6Mbps /NodeList/7/DeviceList/0/$ns3::WifiNetDevice/Phy/State/RxOk ns3::WifiMacHeader (CTL_ACK Duration/ID=1752us, RA=00:00:00:00:00:0a) 
r 0.122477 OfdmRate6Mbps /NodeList/5/DeviceList/0/$ns3::WifiNetDevice/Phy/State/RxOk ns3::WifiMacHeader (CTL_ACK Duration/ID=1752us, RA=00:00:00:00:00:0a) 
r 0.122477 OfdmRate6Mbps /NodeList/0/DeviceList/1/$ns3::WifiNetDevice/Phy/State/RxOk ns3::WifiMacHeader (CTL_ACK Duration/ID=1752us, RA=00:00:00:00:00:0a) 